    9    9    1    2
  0.1295486E+02  0.6067500E-09  0.6067500E-09  0.3657000E-09  0.5000000E-15
  1.000000000000000E-004
  CAR 
 EuTiO3                                  
  135  350  110
 
  0.0000000E+00  0.0000000E+00  0.0000000E+00  0.2857143E-02
   1      -76.480664    -76.182514
   2      -76.460822    -76.162440
   3      -76.460653    -76.162341
   4      -62.097550    -60.110487
   5      -62.090074    -60.102372
   6      -62.089849    -60.102164
   7      -42.813502    -42.508133
   8      -42.686570    -42.376818
   9      -42.686445    -42.376735
  10      -42.567127    -42.236797
  11      -42.567010    -42.236724
  12      -42.527123    -42.203957
  13      -42.429927    -42.193512
  14      -42.409560    -42.183285
  15      -42.409396    -42.183189
  16      -33.484990    -31.657413
  17      -33.477904    -31.578515
  18      -33.468891    -31.578328
  19      -33.468656    -31.480148
  20      -33.447622    -31.470481
  21      -33.447517    -31.470259
  22      -33.409340    -31.409290
  23      -33.397422    -31.409102
  24      -33.397311    -31.384928
  25      -25.673690    -25.678956
  26      -25.673689    -25.678955
  27      -25.643788    -25.648151
  28      -25.643784    -25.648146
  29      -25.627507    -25.629729
  30      -25.602771    -25.619373
  31      -25.599128    -25.614688
  32      -25.599125    -25.611861
  33      -25.598396    -25.611858
  34      -25.596164    -25.607923
  35      -25.596162    -25.607921
  36      -25.587659    -25.597092
  37      -25.587658    -25.597092
  38      -25.584027    -25.593369
  39      -25.584026    -25.593368
  40       -3.500326     -3.474571
  41       -1.734878     -1.726037
  42       -1.207151     -1.236514
  43        4.006768      4.259904
  44        4.006898      4.260024
  45        4.609086      4.686999
  46        4.609204      4.687116
  47        5.606046      5.690480
  48        5.963308      6.513982
  49        6.794227      7.232573
  50        7.008219      7.232603
  51        7.008238      7.234141
  52        7.887896      7.980158
  53        7.929381      8.423852
  54        8.083422      8.423891
  55        8.083429      8.483897
  56        8.176417      8.698914
  57        8.176514      8.698948
  58        8.224200      9.031194
  59        8.224265      9.031291
  60        8.777225      9.092563
  61        8.777236      9.092576
  62        9.424350      9.906567
  63        9.465523     10.610612
  64        9.465614     10.655640
  65        9.497659     10.655770
  66        9.497809     10.775926
  67        9.974733     10.776076
  68       10.080036     10.896980
  69       10.313901     11.142963
  70       10.410297     11.143007
  71       10.448822     11.473104
  72       10.448975     11.521364
  73       10.680762     11.521429
  74       10.751624     11.541196
  75       10.751710     11.708501
  76       11.014113     12.386532
  77       11.014143     12.386589
  78       13.467617     13.784391
  79       13.732155     13.867319
  80       13.821399     14.336032
  81       13.821422     14.336053
  82       14.897597     15.691265
  83       15.389787     15.774511
  84       15.925362     16.292852
  85       17.683422     17.798731
  86       17.683456     17.798764
  87       18.476402     18.836684
  88       18.476526     18.836786
  89       18.732554     19.188789
  90       19.204425     19.718142
  91       19.204475     19.718175
  92       19.578845     19.904393
  93       19.578981     19.904524
  94       20.643258     21.035387
  95       20.643314     21.035435
  96       20.930944     21.382660
  97       21.036801     21.463526
  98       21.036916     21.463628
  99       22.285469     22.383972
 100       23.414596     23.550699
 101       24.265486     24.603541
 102       24.265541     24.603600
 103       25.085830     25.437760
 104       25.958455     26.080840
 105       25.958475     26.080863
 106       26.832715     27.121351
 107       26.832792     27.121429
 108       29.268601     29.564659
 109       29.268991     29.564829
 110       30.349177     30.462611
 
  0.1020408E-01  0.0000000E+00  0.0000000E+00  0.2857143E-02
   1      -76.480662    -76.182512
   2      -76.460824    -76.162442
   3      -76.460654    -76.162342
   4      -62.097544    -60.110482
   5      -62.090078    -60.102374
   6      -62.089853    -60.102165
   7      -42.813438    -42.508074
   8      -42.686555    -42.376809
   9      -42.686422    -42.376709
  10      -42.567080    -42.236730
  11      -42.566963    -42.236693
  12      -42.527126    -42.203967
  13      -42.429937    -42.193516
  14      -42.409708    -42.183441
  15      -42.409523    -42.183311
  16      -33.484980    -31.657399
  17      -33.477902    -31.578494
  18      -33.469000    -31.578312
  19      -33.468754    -31.480145
  20      -33.447609    -31.470595
  21      -33.447505    -31.470361
  22      -33.409340    -31.409261
  23      -33.397369    -31.409056
  24      -33.397270    -31.384929
  25      -25.673690    -25.678956
  26      -25.673689    -25.678955
  27      -25.643789    -25.648151
  28      -25.643784    -25.648146
  29      -25.627509    -25.629732
  30      -25.602773    -25.619376
  31      -25.599128    -25.614689
  32      -25.599126    -25.611861
  33      -25.598397    -25.611858
  34      -25.596165    -25.607924
  35      -25.596162    -25.607921
  36      -25.587657    -25.597091
  37      -25.587657    -25.597090
  38      -25.584027    -25.593368
  39      -25.584026    -25.593367
  40       -3.499867     -3.474117
  41       -1.735122     -1.726290
  42       -1.207703     -1.237032
  43        4.004761      4.256808
  44        4.005583      4.257618
  45        4.611225      4.690321
  46        4.611430      4.690630
  47        5.606134      5.690553
  48        5.963500      6.514122
  49        6.794263      7.225543
  50        7.007427      7.232516
  51        7.008194      7.240079
  52        7.885672      7.979151
  53        7.929722      8.423166
  54        8.080361      8.423581
  55        8.080728      8.484854
  56        8.176276      8.698684
  57        8.177399      8.698811
  58        8.227547      9.031767
  59        8.227706      9.031971
  60        8.777691      9.093113
  61        8.777734      9.093529
  62        9.422747      9.906096
  63        9.465496     10.609535
  64        9.467158     10.655285
  65        9.497606     10.655497
  66        9.497784     10.775627
  67        9.975100     10.776845
  68       10.080099     10.897296
  69       10.313691     11.142427
  70       10.410611     11.143464
  71       10.448700     11.473897
  72       10.449155     11.516332
  73       10.679248     11.521525
  74       10.751796     11.547088
  75       10.752406     11.708951
  76       11.013949     12.386013
  77       11.015349     12.386270
  78       13.463865     13.784804
  79       13.732237     13.866509
  80       13.820879     14.335485
  81       13.825731     14.337414
  82       14.896201     15.691468
  83       15.389624     15.773012
  84       15.925114     16.292549
  85       17.681165     17.797107
  86       17.683287     17.798733
  87       18.473160     18.833233
  88       18.474670     18.834736
  89       18.730400     19.186661
  90       19.204005     19.717617
  91       19.204731     19.717820
  92       19.582784     19.908487
  93       19.583016     19.908614
  94       20.612521     21.010833
  95       20.639976     21.032519
  96       20.957192     21.397989
  97       21.040736     21.466328
  98       21.045842     21.477149
  99       22.282663     22.383159
 100       23.410761     23.547153
 101       24.265855     24.603763
 102       24.272283     24.609121
 103       25.089053     25.440844
 104       25.957756     26.080224
 105       25.962676     26.085000
 106       26.829169     27.117874
 107       26.831641     27.120223
 108       29.265439     29.561954
 109       29.269648     29.565654
 110       30.417070     30.455294
 
  0.2040816E-01  0.0000000E+00  0.0000000E+00  0.2857143E-02
   1      -76.480661    -76.182512
   2      -76.460824    -76.162443
   3      -76.460655    -76.162342
   4      -62.097538    -60.110476
   5      -62.090083    -60.102379
   6      -62.089855    -60.102167
   7      -42.813436    -42.508073
   8      -42.686561    -42.376812
   9      -42.686433    -42.376724
  10      -42.567082    -42.236732
  11      -42.566965    -42.236695
  12      -42.527137    -42.203971
  13      -42.429941    -42.193527
  14      -42.409762    -42.183505
  15      -42.409538    -42.183315
  16      -33.484944    -31.657352
  17      -33.477898    -31.578536
  18      -33.469045    -31.578318
  19      -33.468769    -31.480140
  20      -33.447586    -31.470636
  21      -33.447493    -31.470373
  22      -33.409376    -31.409255
  23      -33.397397    -31.409066
  24      -33.397295    -31.384949
  25      -25.673689    -25.678955
  26      -25.673688    -25.678954
  27      -25.643789    -25.648151
  28      -25.643785    -25.648147
  29      -25.627509    -25.629731
  30      -25.602771    -25.619374
  31      -25.599128    -25.614692
  32      -25.599125    -25.611860
  33      -25.598401    -25.611858
  34      -25.596167    -25.607927
  35      -25.596163    -25.607921
  36      -25.587660    -25.597093
  37      -25.587655    -25.597089
  38      -25.584028    -25.593370
  39      -25.584024    -25.593365
  40       -3.498511     -3.472778
  41       -1.735867     -1.727062
  42       -1.209357     -1.238587
  43        3.998646      4.247634
  44        4.002074      4.250988
  45        4.617524      4.699971
  46        4.618103      4.701010
  47        5.606417      5.690788
  48        5.964097      6.514564
  49        6.794215      7.216210
  50        7.004899      7.232254
  51        7.008101      7.245912
  52        7.879146      7.976165
  53        7.930605      8.421145
  54        8.072002      8.422811
  55        8.073475      8.487513
  56        8.175829      8.697947
  57        8.180033      8.698533
  58        8.236612      9.033420
  59        8.237474      9.034059
  60        8.779062      9.094756
  61        8.779238      9.096321
  62        9.418499      9.904677
  63        9.465351     10.606341
  64        9.471225     10.654217
  65        9.497227     10.654740
  66        9.497977     10.774649
  67        9.976170     10.779232
  68       10.080286     10.898234
  69       10.313040     11.140759
  70       10.411578     11.144718
  71       10.448206     11.476195
  72       10.449721     11.507387
  73       10.674781     11.521944
  74       10.752248     11.558512
  75       10.754543     11.710298
  76       11.013500     12.384594
  77       11.019084     12.385489
  78       13.453077     13.786045
  79       13.732487     13.864069
  80       13.819268     14.333787
  81       13.838090     14.341371
  82       14.892040     15.692079
  83       15.389142     15.768545
  84       15.924368     16.291642
  85       17.674364     17.792186
  86       17.682789     17.798649
  87       18.463431     18.822938
  88       18.469604     18.829063
  89       18.723938     19.180282
  90       19.202756     19.716026
  91       19.205738     19.717074
  92       19.594371     19.920455
  93       19.595092     19.920907
  94       20.543388     20.951303
  95       20.630645     21.024315
  96       20.996345     21.419758
  97       21.055659     21.476569
  98       21.085309     21.525406
  99       22.274471     22.380864
 100       23.399353     23.536608
 101       24.266861     24.604323
 102       24.292414     24.625705
 103       25.098660     25.450017
 104       25.955637     26.078358
 105       25.975200     26.097338
 106       26.818466     27.107382
 107       26.828372     27.116802
 108       29.252789     29.551142
 109       29.267297     29.563087
 110       30.374160     30.451735
 
  0.3061224E-01  0.0000000E+00  0.0000000E+00  0.2857143E-02
   1      -76.480660    -76.182510
   2      -76.460823    -76.162442
   3      -76.460653    -76.162339
   4      -62.097528    -60.110465
   5      -62.090088    -60.102385
   6      -62.089855    -60.102167
   7      -42.813371    -42.508007
   8      -42.686533    -42.376776
   9      -42.686411    -42.376714
  10      -42.567061    -42.236710
  11      -42.566928    -42.236659
  12      -42.527121    -42.203962
  13      -42.429931    -42.193512
  14      -42.409748    -42.183492
  15      -42.409524    -42.183298
  16      -33.484839    -31.657228
  17      -33.477885    -31.578589
  18      -33.469045    -31.578299
  19      -33.468759    -31.480125
  20      -33.447537    -31.470636
  21      -33.447410    -31.470358
  22      -33.409410    -31.409231
  23      -33.397435    -31.409051
  24      -33.397325    -31.384954
  25      -25.673689    -25.678954
  26      -25.673688    -25.678953
  27      -25.643789    -25.648151
  28      -25.643784    -25.648146
  29      -25.627509    -25.629730
  30      -25.602767    -25.619369
  31      -25.599126    -25.614698
  32      -25.599122    -25.611859
  33      -25.598406    -25.611853
  34      -25.596169    -25.607930
  35      -25.596163    -25.607922
  36      -25.587663    -25.597097
  37      -25.587652    -25.597086
  38      -25.584029    -25.593371
  39      -25.584020    -25.593361
  40       -3.496248     -3.470543
  41       -1.737104     -1.728343
  42       -1.212102     -1.241168
  43        3.988762      4.233211
  44        3.996481      4.240700
  45        4.627692      4.715182
  46        4.629019      4.717575
  47        5.606904      5.691195
  48        5.965101      6.515306
  49        6.793989      7.205004
  50        7.000802      7.231718
  51        7.008008      7.251438
  52        7.868627      7.971228
  53        7.931959      8.417987
  54        8.059911      8.421554
  55        8.063411      8.491790
  56        8.175091      8.696631
  57        8.184164      8.698209
  58        8.249717      9.036074
  59        8.252037      9.037650
  60        8.781335      9.097453
  61        8.781734      9.100935
  62        9.412706      9.902340
  63        9.465110     10.601252
  64        9.476749     10.652459
  65        9.496564     10.653525
  66        9.498382     10.773020
  67        9.977962     10.783067
  68       10.080601     10.899778
  69       10.312027     11.138035
  70       10.413185     11.146813
  71       10.447393     11.480006
  72       10.450688     11.498316
  73       10.667595     11.522634
  74       10.752995     11.571772
  75       10.758141     11.712545
  76       11.012756     12.382266
  77       11.025136     12.384198
  78       13.436500     13.788110
  79       13.732904     13.860059
  80       13.816607     14.330990
  81       13.857284     14.347910
  82       14.885141     15.693090
  83       15.388342     15.761147
  84       15.923120     16.290128
  85       17.663165     17.784073
  86       17.681956     17.798508
  87       18.447688     18.806319
  88       18.461496     18.819973
  89       18.713224     19.169733
  90       19.200526     19.712990
  91       19.207338     19.715952
  92       19.613150     19.939810
  93       19.614971     19.941115
  94       20.461314     20.876499
  95       20.616902     21.012110
  96       21.010838     21.429513
  97       21.081886     21.496647
  98       21.165664     21.603639
  99       22.261555     22.377511
 100       23.380657     23.519332
 101       24.268570     24.605283
 102       24.325196     24.652860
 103       25.114581     25.465215
 104       25.952099     26.075245
 105       25.995768     26.117624
 106       26.800975     27.090259
 107       26.822975     27.111153
 108       29.233870     29.529656
 109       29.265993     29.568015
 110       30.301062     30.425476
 
  0.4081633E-01  0.0000000E+00  0.0000000E+00  0.2857143E-02
   1      -76.480654    -76.182504
   2      -76.460823    -76.162442
   3      -76.460654    -76.162341
   4      -62.097514    -60.110451
   5      -62.090096    -60.102394
   6      -62.089858    -60.102170
   7      -42.813366    -42.508003
   8      -42.686494    -42.376747
   9      -42.686369    -42.376662
  10      -42.566995    -42.236653
  11      -42.566805    -42.236539
  12      -42.527086    -42.203919
  13      -42.429889    -42.193477
  14      -42.409775    -42.183500
  15      -42.409609    -42.183398
  16      -33.484677    -31.657043
  17      -33.477868    -31.578686
  18      -33.469066    -31.578254
  19      -33.468820    -31.480100
  20      -33.447467    -31.470647
  21      -33.447280    -31.470406
  22      -33.409468    -31.409186
  23      -33.397486    -31.409020
  24      -33.397352    -31.384972
  25      -25.673687    -25.678953
  26      -25.673686    -25.678951
  27      -25.643789    -25.648151
  28      -25.643783    -25.648145
  29      -25.627509    -25.629729
  30      -25.602761    -25.619364
  31      -25.599127    -25.614707
  32      -25.599118    -25.611860
  33      -25.598414    -25.611847
  34      -25.596172    -25.607934
  35      -25.596163    -25.607922
  36      -25.587668    -25.597102
  37      -25.587647    -25.597081
  38      -25.584031    -25.593373
  39      -25.584011    -25.593353
  40       -3.493080     -3.467415
  41       -1.738840     -1.730141
  42       -1.215943     -1.244780
  43        3.975502      4.214523
  44        3.989092      4.227603
  45        4.641307      4.734959
  46        4.643864      4.739444
  47        5.607565      5.691746
  48        5.966514      6.516355
  49        6.793355      7.191703
  50        6.995289      7.230792
  51        7.008011      7.257038
  52        7.854550      7.964393
  53        7.933584      8.413896
  54        8.045592      8.419843
  55        8.052193      8.497536
  56        8.174054      8.694647
  57        8.189471      8.698004
  58        8.265323      9.039571
  59        8.269893      9.042716
  60        8.784399      9.101144
  61        8.785102      9.107279
  62        9.406094      9.899056
  63        9.464801     10.594388
  64        9.483043     10.650064
  65        9.495628     10.651955
  66        9.499052     10.770730
  67        9.980486     10.788172
  68       10.081051     10.901880
  69       10.310571     11.134255
  70       10.415353     11.149694
  71       10.446242     11.485292
  72       10.452031     11.489723
  73       10.657943     11.523581
  74       10.754034     11.586191
  75       10.763204     11.715674
  76       11.011729     12.379053
  77       11.033256     12.382413
  78       13.415554     13.790968
  79       13.733461     13.854539
  80       13.812864     14.327071
  81       13.881857     14.356938
  82       14.875523     15.694481
  83       15.387222     15.750835
  84       15.921365     16.288008
  85       17.647724     17.772860
  86       17.680783     17.798306
  87       18.426512     18.784028
  88       18.450773     18.807918
  89       18.698323     19.155102
  90       19.197045     19.707989
  91       19.209385     19.714503
  92       19.638409     19.965832
  93       19.642204     19.968674
  94       20.376200     20.796635
  95       20.600530     20.997445
  96       21.015525     21.432490
  97       21.115855     21.525022
  98       21.263897     21.696425
  99       22.244911     22.373750
 100       23.355107     23.495735
 101       24.270953     24.606593
 102       24.369542     24.689870
 103       25.136678     25.486296
 104       25.947126     26.070869
 105       26.023945     26.145451
 106       26.777194     27.067031
 107       26.815522     27.103349
 108       29.206758     29.497314
 109       29.264411     29.553653
 110       30.289483     30.441063
 
  0.5102041E-01  0.0000000E+00  0.0000000E+00  0.2857143E-02
   1      -76.480655    -76.182505
   2      -76.460824    -76.162442
   3      -76.460654    -76.162342
   4      -62.097500    -60.110435
   5      -62.090109    -60.102406
   6      -62.089863    -60.102173
   7      -42.813333    -42.507970
   8      -42.686564    -42.376830
   9      -42.686374    -42.376656
  10      -42.566989    -42.236644
  11      -42.566855    -42.236588
  12      -42.527139    -42.203909
  13      -42.429879    -42.193533
  14      -42.409766    -42.183493
  15      -42.409595    -42.183382
  16      -33.484531    -31.656864
  17      -33.477848    -31.578905
  18      -33.469068    -31.578227
  19      -33.468818    -31.480077
  20      -33.447473    -31.470646
  21      -33.447140    -31.470404
  22      -33.409619    -31.409209
  23      -33.397655    -31.409017
  24      -33.397397    -31.385053
  25      -25.673688    -25.678954
  26      -25.673684    -25.678949
  27      -25.643788    -25.648150
  28      -25.643783    -25.648145
  29      -25.627509    -25.629728
  30      -25.602754    -25.619357
  31      -25.599126    -25.614718
  32      -25.599112    -25.611859
  33      -25.598425    -25.611839
  34      -25.596178    -25.607942
  35      -25.596164    -25.607922
  36      -25.587676    -25.597108
  37      -25.587644    -25.597078
  38      -25.584035    -25.593378
  39      -25.584004    -25.593346
  40       -3.489018     -3.463404
  41       -1.741070     -1.732448
  42       -1.220863     -1.249408
  43        3.959319      4.192533
  44        3.980263      4.212566
  45        4.657862      4.758280
  46        4.662257      4.765705
  47        5.608428      5.692467
  48        5.968315      6.517686
  49        6.791954      7.176151
  50        6.988598      7.229367
  51        7.008234      7.263001
  52        7.837395      7.955732
  53        7.935125      8.409057
  54        8.030124      8.417688
  55        8.041083      8.504598
  56        8.172718      8.691915
  57        8.195522      8.697967
  58        8.282344      9.043784
  59        8.290001      9.049302
  60        8.788122      9.105714
  61        8.789387      9.115226
  62        9.399105      9.894855
  63        9.464335     10.586088
  64        9.489518     10.647016
  65        9.494401     10.649911
  66        9.500033     10.767745
  67        9.983688     10.794303
  68       10.081524     10.904400
  69       10.308792     11.129468
  70       10.418055     11.153357
  71       10.444706     11.481813
  72       10.453732     11.491950
  73       10.646161     11.524771
  74       10.755339     11.601621
  75       10.769753     11.719545
  76       11.010404     12.374892
  77       11.043009     12.380121
  78       13.391494     13.794608
  79       13.734157     13.847593
  80       13.808020     14.322010
  81       13.910560     14.368378
  82       14.863217     15.696219
  83       15.385774     15.737647
  84       15.919067     16.285254
  85       17.628253     17.758674
  86       17.679265     17.798040
  87       18.400620     18.756866
  88       18.438006     18.793513
  89       18.679340     19.136527
  90       19.191937     19.700398
  91       19.211685     19.712717
  92       19.669416     19.997743
  93       19.676277     20.002992
  94       20.291933     20.716415
  95       20.583055     20.981714
  96       21.017964     21.432802
  97       21.155382     21.558999
  98       21.369336     21.796424
  99       22.225801     22.370456
 100       23.323276     23.466362
 101       24.274026     24.608255
 102       24.424151     24.735868
 103       25.164737     25.513033
 104       25.940705     26.065225
 105       26.059160     26.180292
 106       26.747803     27.038407
 107       26.806122     27.093494
 108       29.173165     29.461767
 109       29.260128     29.547244
 110       30.177628     30.361269
 
  0.6122449E-01  0.0000000E+00  0.0000000E+00  0.2857143E-02
   1      -76.480656    -76.182507
   2      -76.460827    -76.162446
   3      -76.460656    -76.162342
   4      -62.097483    -60.110416
   5      -62.090126    -60.102425
   6      -62.089870    -60.102178
   7      -42.813364    -42.508002
   8      -42.686609    -42.376862
   9      -42.686450    -42.376742
  10      -42.567033    -42.236685
  11      -42.566913    -42.236644
  12      -42.527198    -42.203914
  13      -42.429883    -42.193593
  14      -42.409776    -42.183503
  15      -42.409603    -42.183391
  16      -33.484390    -31.656681
  17      -33.477831    -31.579159
  18      -33.469089    -31.578227
  19      -33.468827    -31.480060
  20      -33.447486    -31.470670
  21      -33.447028    -31.470417
  22      -33.409817    -31.409259
  23      -33.397855    -31.409002
  24      -33.397458    -31.385168
  25      -25.673689    -25.678954
  26      -25.673684    -25.678948
  27      -25.643789    -25.648151
  28      -25.643784    -25.648146
  29      -25.627509    -25.629726
  30      -25.602745    -25.619348
  31      -25.599125    -25.614732
  32      -25.599105    -25.611858
  33      -25.598439    -25.611830
  34      -25.596186    -25.607953
  35      -25.596165    -25.607923
  36      -25.587685    -25.597117
  37      -25.587638    -25.597072
  38      -25.584041    -25.593384
  39      -25.583996    -25.593339
  40       -3.484059     -3.458506
  41       -1.743802     -1.735275
  42       -1.226856     -1.255046
  43        3.940684      4.168094
  44        3.970409      4.196402
  45        4.676862      4.784287
  46        4.683780      4.795529
  47        5.609465      5.693328
  48        5.970505      6.519304
  49        6.789390      7.158304
  50        6.981022      7.227394
  51        7.008875      7.269564
  52        7.817623      7.945333
  53        7.936113      8.403633
  54        8.014193      8.415221
  55        8.031276      8.512917
  56        8.171080      8.688429
  57        8.202041      8.698217
  58        8.300185      9.048553
  59        8.311592      9.057343
  60        8.792299      9.111120
  61        8.794505      9.124627
  62        9.391969      9.889753
  63        9.463765     10.576497
  64        9.492871     10.643401
  65        9.496026     10.647538
  66        9.501419     10.764056
  67        9.987598     10.801283
  68       10.082018     10.907321
  69       10.306650     11.123726
  70       10.421192     11.157767
  71       10.442787     11.474584
  72       10.455804     11.499950
  73       10.632614     11.526156
  74       10.756876     11.618002
  75       10.777806     11.724148
  76       11.008758     12.369878
  77       11.054189     12.377314
  78       13.365279     13.798985
  79       13.734954     13.839308
  80       13.802125     14.315903
  81       13.942391     14.382097
  82       14.848271     15.698268
  83       15.383992     15.721632
  84       15.916219     16.281868
  85       17.605065     17.741734
  86       17.677379     17.797692
  87       18.370751     18.725636
  88       18.423742     18.777328
  89       18.656412     19.114174
  90       19.184666     19.689461
  91       19.214097     19.710613
  92       19.705360     20.034647
  93       19.716541     20.043387
  94       20.210570     20.638442
  95       20.565585     20.966029
  96       21.019907     21.432036
  97       21.198825     21.596504
  98       21.478804     21.900622
  99       22.205643     22.368658
 100       23.285817     23.431837
 101       24.277747     24.610204
 102       24.487525     24.789784
 103       25.198475     25.545129
 104       25.932808     26.058285
 105       26.100770     26.221549
 106       26.713654     27.005282
 107       26.794963     27.081781
 108       29.133536     29.416364
 109       29.258304     29.540703
 110       30.256281     30.291305
 
  0.7142857E-01  0.0000000E+00  0.0000000E+00  0.2857143E-02
   1      -76.480654    -76.182504
   2      -76.460821    -76.162438
   3      -76.460653    -76.162342
   4      -62.097456    -60.110386
   5      -62.090143    -60.102444
   6      -62.089871    -60.102180
   7      -42.813268    -42.507907
   8      -42.686542    -42.376809
   9      -42.686346    -42.376635
  10      -42.567000    -42.236667
  11      -42.566879    -42.236593
  12      -42.527091    -42.203896
  13      -42.429865    -42.193486
  14      -42.409742    -42.183460
  15      -42.409551    -42.183347
  16      -33.484165    -31.656407
  17      -33.477763    -31.579295
  18      -33.469101    -31.578175
  19      -33.468816    -31.479987
  20      -33.447417    -31.470681
  21      -33.446818    -31.470405
  22      -33.409938    -31.409233
  23      -33.397907    -31.408906
  24      -33.397477    -31.385192
  25      -25.673688    -25.678953
  26      -25.673680    -25.678944
  27      -25.643787    -25.648150
  28      -25.643783    -25.648145
  29      -25.627508    -25.629724
  30      -25.602733    -25.619336
  31      -25.599123    -25.614747
  32      -25.599095    -25.611856
  33      -25.598453    -25.611818
  34      -25.596193    -25.607962
  35      -25.596164    -25.607923
  36      -25.587694    -25.597126
  37      -25.587630    -25.597065
  38      -25.584045    -25.593389
  39      -25.583983    -25.593326
  40       -3.478178     -3.452701
  41       -1.747021     -1.738604
  42       -1.233888     -1.261663
  43        3.920103      4.141944
  44        3.959911      4.179761
  45        4.697831      4.812269
  46        4.708065      4.828282
  47        5.610701      5.694359
  48        5.973099      6.521222
  49        6.785169      7.138170
  50        6.972923      7.224865
  51        7.010208      7.276895
  52        7.795662      7.933303
  53        7.935968      8.397827
  54        7.998317      8.412515
  55        8.023726      8.522428
  56        8.169156      8.684206
  57        8.208803      8.698874
  58        8.318387      9.053782
  59        8.334415      9.066841
  60        8.796743      9.117247
  61        8.800510      9.135528
  62        9.384900      9.883826
  63        9.463129     10.565884
  64        9.491057     10.639315
  65        9.502444     10.644911
  66        9.503394     10.759717
  67        9.992227     10.808984