    9    9    1    2
  0.1295486E+02  0.6067500E-09  0.6067500E-09  0.3657000E-09  0.5000000E-15
  1.000000000000000E-004
  CAR 
 EuTiO3                                  
  135  350  110
 
  0.0000000E+00  0.0000000E+00  0.0000000E+00  0.2857143E-02
   1      -76.649345    -75.818224
   2      -76.630331    -75.798322
   3      -76.628701    -75.797356
   4      -62.183286    -59.934016
   5      -62.175945    -59.925955
   6      -62.175404    -59.925502
   7      -42.921257    -42.127564
   8      -42.798156    -41.996372
   9      -42.796808    -41.995678
  10      -42.691710    -41.890624
  11      -42.691038    -41.869959
  12      -42.689994    -41.869153
  13      -42.672294    -41.868751
  14      -42.670624    -41.868033
  15      -42.653216    -41.826265
  16      -33.598836    -31.436782
  17      -33.565408    -31.358850
  18      -33.556529    -31.358440
  19      -33.555984    -31.352461
  20      -33.536238    -31.342868
  21      -33.535984    -31.342449
  22      -33.482991    -31.245291
  23      -33.482727    -31.244855
  24      -33.469360    -31.222489
  25      -25.693199    -25.703140
  26      -25.693193    -25.703136
  27      -25.663164    -25.671417
  28      -25.663156    -25.671408
  29      -25.644589    -25.652361
  30      -25.593021    -25.614133
  31      -25.588628    -25.609214
  32      -25.587492    -25.605681
  33      -25.587480    -25.605663
  34      -25.584555    -25.601672
  35      -25.584543    -25.601654
  36      -25.571184    -25.587602
  37      -25.571164    -25.587587
  38      -25.567564    -25.583852
  39      -25.567544    -25.583836
  40       -3.493160     -3.481273
  41       -1.738630     -1.736033
  42       -1.194386     -1.239506
  43        4.005041      4.294876
  44        4.005121      4.294956
  45        4.583171      4.701170
  46        4.583332      4.701269
  47        5.537645      5.767689
  48        5.892473      6.639489
  49        6.657238      7.341348
  50        6.962101      7.341510
  51        6.962425      7.428727
  52        7.819097      7.980663
  53        7.883163      8.603424
  54        7.947630      8.603565
  55        7.947964      8.696931
  56        8.078634      8.930127
  57        8.079120      8.930455
  58        8.079620      9.222584
  59        8.080114      9.222814
  60        8.605066      9.348249
  61        8.605222      9.348568
  62        9.269699     10.106847
  63        9.335181     10.932797
  64        9.335508     10.954017
  65        9.376334     10.954276
  66        9.376856     11.077936
  67        9.790698     11.078177
  68        9.961957     11.214496
  69       10.056978     11.487334
  70       10.280554     11.487768
  71       10.281512     11.745719
  72       10.383839     11.768476
  73       10.550518     11.792500
  74       10.610560     11.792620
  75       10.610749     12.092363
  76       10.870285     12.712003
  77       10.870419     12.712123
  78       13.449370     13.890426
  79       13.638702     13.958054
  80       13.703582     14.540983
  81       13.703688     14.541103
  82       14.831876     15.739300
  83       15.345429     16.005689
  84       15.834472     16.435193
  85       17.680007     17.829246
  86       17.680010     17.829264
  87       18.444798     18.895411
  88       18.444911     18.895542
  89       18.701500     19.330585
  90       19.147318     19.817985
  91       19.147436     19.818086
  92       19.525272     19.994254
  93       19.525379     19.994370
  94       20.618036     21.143063
  95       20.618087     21.143200
  96       20.903946     21.448094
  97       21.005528     21.519619
  98       21.005622     21.519727
  99       22.258095     22.444837
 100       23.391896     23.572977
 101       24.237763     24.693043
 102       24.237799     24.693098
 103       25.053196     25.505952
 104       25.948700     26.112046
 105       25.948822     26.112165
 106       26.816025     27.173749
 107       26.816177     27.173821
 108       29.241632     29.603481
 109       29.241846     29.604230
 110       30.349117     30.499776
 
  0.1020408E-01  0.0000000E+00  0.0000000E+00  0.2857143E-02
   1      -76.649343    -75.818223
   2      -76.630332    -75.798324
   3      -76.628703    -75.797357
   4      -62.183280    -59.934012
   5      -62.175950    -59.925958
   6      -62.175407    -59.925503
   7      -42.921194    -42.127506
   8      -42.798139    -41.996358
   9      -42.796788    -41.995657
  10      -42.691720    -41.890634
  11      -42.690994    -41.870101
  12      -42.689945    -41.869290
  13      -42.672435    -41.868698
  14      -42.670763    -41.867992
  15      -42.653220    -41.826268
  16      -33.598824    -31.436768
  17      -33.565406    -31.358831
  18      -33.556634    -31.358428
  19      -33.556084    -31.352458
  20      -33.536229    -31.342982
  21      -33.535973    -31.342554
  22      -33.482964    -31.245268
  23      -33.482665    -31.244800
  24      -33.469353    -31.222490
  25      -25.693198    -25.703139
  26      -25.693192    -25.703135
  27      -25.663164    -25.671417
  28      -25.663156    -25.671408
  29      -25.644591    -25.652363
  30      -25.593024    -25.614135
  31      -25.588630    -25.609216
  32      -25.587492    -25.605681
  33      -25.587480    -25.605664
  34      -25.584556    -25.601673
  35      -25.584543    -25.601655
  36      -25.571183    -25.587601
  37      -25.571163    -25.587586
  38      -25.567563    -25.583851
  39      -25.567544    -25.583836
  40       -3.492702     -3.480820
  41       -1.738871     -1.736286
  42       -1.194938     -1.240024
  43        4.002995      4.291509
  44        4.003795      4.292301
  45        4.585298      4.704779
  46        4.585505      4.705126
  47        5.537733      5.767757
  48        5.892666      6.639620
  49        6.657410      7.339192
  50        6.961348      7.341324
  51        6.962252      7.429715
  52        7.819464      7.979842
  53        7.880282      8.603026
  54        7.944689      8.603267
  55        7.945126      8.697706
  56        8.079563      8.929874
  57        8.081294      8.930207
  58        8.082059      9.223228
  59        8.082563      9.223430
  60        8.605594      9.348863
  61        8.605927      9.349394
  62        9.268834     10.106425
  63        9.335198     10.931462
  64        9.336181     10.953625
  65        9.376357     10.953938
  66        9.376815     11.077517
  67        9.791122     11.079208
  68        9.961979     11.214800
  69       10.056802     11.486911
  70       10.280555     11.488051
  71       10.281611     11.746649
  72       10.383881     11.763772
  73       10.548971     11.792656
  74       10.610714     11.798153
  75       10.611642     12.092805
  76       10.870174     12.711436
  77       10.871665     12.711790
  78       13.443020     13.890902
  79       13.638791     13.957984
  80       13.703129     14.540403
  81       13.710543     14.541663
  82       14.830477     15.739608
  83       15.345246     16.004139
  84       15.834244     16.434844
  85       17.677591     17.827805
  86       17.679768     17.829279
  87       18.441506     18.892105
  88       18.442964     18.893621
  89       18.699300     19.328404
  90       19.146983     19.817598
  91       19.147739     19.817636
  92       19.529272     19.998216
  93       19.529513     19.998276
  94       20.587370     21.114573
  95       20.614665     21.139635
  96       20.929296     21.466733
  97       21.009471     21.523228
  98       21.015499     21.533694
  99       22.255302     22.444132
 100       23.388059     23.569538
 101       24.238136     24.693211
 102       24.244563     24.698447
 103       25.056448     25.508989
 104       25.948048     26.111534
 105       25.952935     26.116192
 106       26.812493     27.170257
 107       26.815007     27.172600
 108       29.237792     29.599524
 109       29.241436     29.602779
 110       30.353610     30.500556
 
  0.2040816E-01  0.0000000E+00  0.0000000E+00  0.2857143E-02
   1      -76.649342    -75.818222
   2      -76.630333    -75.798324
   3      -76.628703    -75.797357
   4      -62.183274    -59.934005
   5      -62.175955    -59.925964
   6      -62.175408    -59.925503
   7      -42.921192    -42.127504
   8      -42.798147    -41.996365
   9      -42.796797    -41.995669
  10      -42.691725    -41.890637
  11      -42.690995    -41.870146
  12      -42.689947    -41.869313
  13      -42.672470    -41.868700
  14      -42.670797    -41.867994
  15      -42.653232    -41.826279
  16      -33.598784    -31.436720
  17      -33.565401    -31.358882
  18      -33.556677    -31.358418
  19      -33.556102    -31.352452
  20      -33.536254    -31.343025
  21      -33.535957    -31.342564
  22      -33.482969    -31.245260
  23      -33.482701    -31.244821
  24      -33.469363    -31.222509
  25      -25.693198    -25.703139
  26      -25.693192    -25.703135
  27      -25.663165    -25.671418
  28      -25.663156    -25.671409
  29      -25.644591    -25.652363
  30      -25.593022    -25.614133
  31      -25.588633    -25.609219
  32      -25.587492    -25.605681
  33      -25.587480    -25.605663
  34      -25.584557    -25.601675
  35      -25.584545    -25.601656
  36      -25.571184    -25.587603
  37      -25.571163    -25.587585
  38      -25.567562    -25.583850
  39      -25.567544    -25.583836
  40       -3.491347     -3.479483
  41       -1.739606     -1.737061
  42       -1.196592     -1.241577
  43        3.996812      4.281613
  44        4.000224      4.284950
  45        4.591551      4.715275
  46        4.592029      4.716423
  47        5.538016      5.767981
  48        5.893269      6.640033
  49        6.657784      7.332597
  50        6.958566      7.340981
  51        6.962116      7.432394
  52        7.820414      7.977410
  53        7.871946      8.601712
  54        7.936509      8.602624
  55        7.937820      8.699872
  56        8.079038      8.929005
  57        8.085000      8.929661
  58        8.091307      9.225000
  59        8.092245      9.225425
  60        8.607058      9.350446
  61        8.608128      9.352063
  62        9.266327     10.105152
  63        9.335057     10.927546
  64        9.338243     10.952471
  65        9.376091     10.952946
  66        9.377070     11.076240
  67        9.792356     11.082273
  68        9.962039     11.215704
  69       10.056254     11.485240
  70       10.280291     11.489138
  71       10.282063     11.749362
  72       10.384040     11.754967
  73       10.544417     11.793088
  74       10.611130     11.809520
  75       10.614346     12.094124
  76       10.869753     12.709877
  77       10.875650     12.710935
  78       13.425666     13.892335
  79       13.639058     13.957740
  80       13.701530     14.538572
  81       13.729498     14.543283
  82       14.826307     15.740534
  83       15.344705     15.999519
  84       15.833560     16.433796
  85       17.670340     17.823420
  86       17.679028     17.829344
  87       18.431583     18.882077
  88       18.437682     18.888479
  89       18.692700     19.321869
  90       19.145858     19.816229
  91       19.149003     19.816822
  92       19.541074     20.009701
  93       19.541841     20.010136
  94       20.518386     21.048478
  95       20.605133     21.129851
  96       20.965622     21.487812
  97       21.024290     21.536770
  98       21.058090     21.587412
  99       22.247151     22.442148
 100       23.376645     23.559312
 101       24.239172     24.693590
 102       24.264740     24.714554
 103       25.066143     25.518024
 104       25.945864     26.109772
 105       25.965404     26.128411
 106       26.801769     27.159761
 107       26.811744     27.169096
 108       29.226008     29.586262
 109       29.240643     29.600218
 110       30.327586     30.459006
 
  0.3061224E-01  0.0000000E+00  0.0000000E+00  0.2857143E-02
   1      -76.649341    -75.818220
   2      -76.630331    -75.798323
   3      -76.628701    -75.797355
   4      -62.183264    -59.933994
   5      -62.175961    -59.925972
   6      -62.175408    -59.925502
   7      -42.921126    -42.127440
   8      -42.798118    -41.996337
   9      -42.796771    -41.995649
  10      -42.691716    -41.890628
  11      -42.690972    -41.870134
  12      -42.689917    -41.869296
  13      -42.672455    -41.868670
  14      -42.670784    -41.867968
  15      -42.653216    -41.826264
  16      -33.598671    -31.436597
  17      -33.565388    -31.358939
  18      -33.556676    -31.358380
  19      -33.556094    -31.352437
  20      -33.536267    -31.343026
  21      -33.535893    -31.342549
  22      -33.482975    -31.245235
  23      -33.482736    -31.244826
  24      -33.469348    -31.222511
  25      -25.693197    -25.703138
  26      -25.693191    -25.703134
  27      -25.663164    -25.671417
  28      -25.663156    -25.671408
  29      -25.644591    -25.652362
  30      -25.593017    -25.614127
  31      -25.588638    -25.609225
  32      -25.587490    -25.605678
  33      -25.587477    -25.605660
  34      -25.584559    -25.601677
  35      -25.584546    -25.601658
  36      -25.571187    -25.587605
  37      -25.571161    -25.587582
  38      -25.567560    -25.583849
  39      -25.567542    -25.583835
  40       -3.489086     -3.477251
  41       -1.740827     -1.738347
  42       -1.199337     -1.244156
  43        3.986833      4.266162
  44        3.994530      4.273622
  45        4.601610      4.731731
  46        4.602712      4.734339
  47        5.538504      5.768371
  48        5.894282      6.640723
  49        6.658321      7.322126
  50        6.953977      7.340384
  51        6.961962      7.436425
  52        7.821855      7.973381
  53        7.858839      8.599567
  54        7.924691      8.601595
  55        7.927908      8.703458
  56        8.078136      8.927380
  57        8.090551      8.928998
  58        8.104445      9.227726
  59        8.106751      9.228980
  60        8.609479      9.352995
  61        8.611769      9.356530
  62        9.262526     10.103058
  63        9.334801     10.921382
  64        9.341366     10.950577
  65        9.375423     10.951337
  66        9.377760     11.074119
  67        9.794413     11.087104
  68        9.962144     11.217194
  69       10.055412     11.482465
  70       10.279676     11.491001
  71       10.283034     11.745780
  72       10.384330     11.753851
  73       10.537111     11.793796
  74       10.611817     11.823025
  75       10.618868     12.096324
  76       10.869055     12.707317
  77       10.882096     12.709523
  78       13.400818     13.894721
  79       13.639506     13.957305
  80       13.698888     14.535554
  81       13.757013     14.546018
  82       14.819392     15.742068
  83       15.343805     15.991869
  84       15.832415     16.432049
  85       17.658406     17.816191
  86       17.677794     17.829451
  87       18.415544     18.865870
  88       18.429237     18.880221
  89       18.681758     19.311062
  90       19.143832     19.813529
  91       19.151027     19.815635
  92       19.560199     20.028362
  93       19.562103     20.029597
  94       20.436495     20.968284
  95       20.591132     21.115589
  96       20.978949     21.494193
  97       21.050604     21.561330
  98       21.139824     21.671849
  99       22.234306     22.439281
 100       23.357935     23.542560
 101       24.240933     24.694249
 102       24.297593     24.740947
 103       25.082209     25.532990
 104       25.942217     26.106830
 105       25.985884     26.148508
 106       26.784239     27.142632
 107       26.806358     27.163309
 108       29.206562     29.565006
 109       29.239303     29.596181
 110       30.287405     30.470181
 
  0.4081633E-01  0.0000000E+00  0.0000000E+00  0.2857143E-02
   1      -76.649335    -75.818215
   2      -76.630332    -75.798323
   3      -76.628702    -75.797356
   4      -62.183250    -59.933979
   5      -62.175970    -59.925984
   6      -62.175410    -59.925502
   7      -42.921122    -42.127436
   8      -42.798083    -41.996303
   9      -42.796735    -41.995609
  10      -42.691676    -41.890586
  11      -42.690882    -41.870173
  12      -42.689809    -41.869366
  13      -42.672512    -41.868575
  14      -42.670841    -41.867881
  15      -42.653182    -41.826228
  16      -33.598498    -31.436411
  17      -33.565372    -31.359036
  18      -33.556704    -31.358315
  19      -33.556147    -31.352413
  20      -33.536301    -31.343041
  21      -33.535790    -31.342592
  22      -33.482973    -31.245191
  23      -33.482769    -31.244822
  24      -33.469333    -31.222525
  25      -25.693195    -25.703136
  26      -25.693190    -25.703132
  27      -25.663164    -25.671417
  28      -25.663156    -25.671408
  29      -25.644591    -25.652362
  30      -25.593011    -25.614121
  31      -25.588646    -25.609234
  32      -25.587489    -25.605677
  33      -25.587474    -25.605655
  34      -25.584561    -25.601681
  35      -25.584547    -25.601659
  36      -25.571191    -25.587610
  37      -25.571158    -25.587579
  38      -25.567559    -25.583849
  39      -25.567538    -25.583830
  40       -3.485921     -3.474126
  41       -1.742541     -1.740152
  42       -1.203178     -1.247764
  43        3.973463      4.246305
  44        3.987007      4.259332
  45        4.615042      4.752986
  46        4.617230      4.757835
  47        5.539166      5.768896
  48        5.895707      6.641700
  49        6.658882      7.308225
  50        6.947693      7.339484
  51        6.961827      7.441471
  52        7.823525      7.967786
  53        7.841792      8.596672
  54        7.910790      8.600187
  55        7.917099      8.708429
  56        8.076860      8.924970
  57        8.097272      8.928350
  58        8.119964      9.231286
  59        8.124502      9.234025
  60        8.612779      9.356481
  61        8.616649      9.362691
  62        9.257738     10.100111
  63        9.334463     10.913231
  64        9.345286     10.947987
  65        9.374455     10.949231
  66        9.378831     11.071150
  67        9.797290     11.093384
  68        9.962298     11.219224
  69       10.054192     11.478604
  70       10.278738     11.493572
  71       10.284452     11.736992
  72       10.384712     11.760066
  73       10.527332     11.794764
  74       10.612776     11.837822
  75       10.625178     12.099384
  76       10.868092     12.703780
  77       10.890724     12.707565
  78       13.371459     13.898025
  79       13.640105     13.956617
  80       13.695172     14.531333
  81       13.790069     14.549900
  82       14.809751     15.744183
  83       15.342543     15.981208
  84       15.830805     16.429603
  85       17.641963     17.806201
  86       17.676066     17.829594
  87       18.393999     18.844090
  88       18.418084     18.869236
  89       18.666541     19.296076
  90       19.140646     19.809011
  91       19.153651     19.814115
  92       19.585898     20.053549
  93       19.589829     20.056122
  94       20.351567     20.884122
  95       20.574500     21.098832
  96       20.983374     21.495401
  97       21.084903     21.593705
  98       21.238358     21.768578
  99       22.217765     22.436135
 100       23.332363     23.519681
 101       24.243396     24.695136
 102       24.342032     24.776952
 103       25.104507     25.553751
 104       25.937091     26.102696
 105       26.013940     26.176090
 106       26.760406     27.119397
 107       26.798915     27.155309
 108       29.179967     29.535494
 109       29.237158     29.590838
 110       30.288323     30.409041
 
  0.5102041E-01  0.0000000E+00  0.0000000E+00  0.2857143E-02
   1      -76.649336    -75.818216
   2      -76.630332    -75.798323
   3      -76.628703    -75.797357
   4      -62.183236    -59.933963
   5      -62.175984    -59.926000
   6      -62.175414    -59.925502
   7      -42.921087    -42.127403
   8      -42.798126    -41.996357
   9      -42.796760    -41.995629
  10      -42.691666    -41.890576
  11      -42.690897    -41.870162
  12      -42.689843    -41.869353
  13      -42.672501    -41.868599
  14      -42.670830    -41.867900
  15      -42.653236    -41.826282
  16      -33.598338    -31.436232
  17      -33.565352    -31.359245
  18      -33.556708    -31.358269
  19      -33.556144    -31.352390
  20      -33.536422    -31.343043
  21      -33.535702    -31.342588
  22      -33.483034    -31.245148
  23      -33.482878    -31.244919
  24      -33.469375    -31.222600
  25      -25.693195    -25.703136
  26      -25.693190    -25.703131
  27      -25.663163    -25.671417
  28      -25.663156    -25.671408
  29      -25.644591    -25.652362
  30      -25.593003    -25.614112
  31      -25.588657    -25.609245
  32      -25.587488    -25.605675
  33      -25.587469    -25.605648
  34      -25.584565    -25.601687
  35      -25.584548    -25.601660
  36      -25.571198    -25.587616
  37      -25.571155    -25.587576
  38      -25.567562    -25.583852
  39      -25.567532    -25.583824
  40       -3.481862     -3.470120
  41       -1.744741     -1.742469
  42       -1.208097     -1.252387
  43        3.957169      4.223123
  44        3.978020      4.243074
  45        4.631331      4.777896
  46        4.635194      4.785872
  47        5.540030      5.769585
  48        5.897523      6.642940
  49        6.659237      7.291230
  50        6.939882      7.338210
  51        6.961773      7.447308
  52        7.821576      7.960672
  53        7.824951      8.593107
  54        7.895883      8.598397
  55        7.906746      8.714717
  56        8.075203      8.921734
  57        8.104504      8.927759
  58        8.136818      9.235521
  59        8.144452      9.240634
  60        8.616934      9.360806
  61        8.622661      9.370427
  62        9.252292     10.096337
  63        9.333952     10.903535
  64        9.349533     10.944681
  65        9.373190     10.946531
  66        9.380284     11.067313
  67        9.800916     11.100762
  68        9.962390     11.221654
  69       10.052716     11.473709
  70       10.277455     11.496849
  71       10.286284     11.728869
  72       10.385214     11.767887
  73       10.515444     11.795974
  74       10.613984     11.853693
  75       10.633259     12.103176
  76       10.866849     12.699215
  77       10.901068     12.705057
  78       13.339518     13.902235
  79       13.640855     13.955609
  80       13.690360     14.525892
  81       13.826740     14.555011
  82       14.797416     15.746836
  83       15.340909     15.967581
  84       15.828695     16.426431
  85       17.621250     17.793561
  86       17.673846     17.829768
  87       18.367696     18.817492
  88       18.404824     18.856069
  89       18.647160     19.277055
  90       19.135935     19.802087
  91       19.156666     19.812243
  92       19.617408     20.084543
  93       19.624478     20.089173
  94       20.267472     20.800190
  95       20.556784     21.081234
  96       20.985660     21.494956
  97       21.124834     21.631216
  98       21.343953     21.871055
  99       22.198795     22.433542
 100       23.300495     23.491207
 101       24.246577     24.696255
 102       24.396746     24.821754
 103       25.132819     25.580082
 104       25.930473     26.097363
 105       26.049006     26.210645
 106       26.730948     27.090770
 107       26.789521     27.145200
 108       29.146806     29.498333
 109       29.234528     29.582997
 110       30.217196     30.379486
 
  0.6122449E-01  0.0000000E+00  0.0000000E+00  0.2857143E-02
   1      -76.649337    -75.818217
   2      -76.630335    -75.798326
   3      -76.628705    -75.797358
   4      -62.183218    -59.933943
   5      -62.176002    -59.926022
   6      -62.175420    -59.925504
   7      -42.921118    -42.127435
   8      -42.798181    -41.996402
   9      -42.796825    -41.995700
  10      -42.691670    -41.890581
  11      -42.690945    -41.870171
  12      -42.689896    -41.869362
  13      -42.672509    -41.868651
  14      -42.670838    -41.867947
  15      -42.653296    -41.826340
  16      -33.598180    -31.436047
  17      -33.565334    -31.359485
  18      -33.556730    -31.358253
  19      -33.556151    -31.352372
  20      -33.536567    -31.343071
  21      -33.535650    -31.342597
  22      -33.483180    -31.245133
  23      -33.482935    -31.245005
  24      -33.469457    -31.222708
  25      -25.693195    -25.703136
  26      -25.693190    -25.703130
  27      -25.663164    -25.671417
  28      -25.663156    -25.671408
  29      -25.644591    -25.652362
  30      -25.592994    -25.614101
  31      -25.588669    -25.609259
  32      -25.587486    -25.605673
  33      -25.587462    -25.605640
  34      -25.584573    -25.601697
  35      -25.584550    -25.601662
  36      -25.571206    -25.587625
  37      -25.571150    -25.587570
  38      -25.567567    -25.583859
  39      -25.567526    -25.583817
  40       -3.476907     -3.465229
  41       -1.747437     -1.745306
  42       -1.214090     -1.258019
  43        3.938434      4.197540
  44        3.967988      4.225743
  45        4.649970      4.805536
  46        4.656182      4.817538
  47        5.541067      5.770407
  48        5.899732      6.644448
  49        6.659152      7.271403
  50        6.930754      7.336518
  51        6.961915      7.453885
  52        7.798827      7.952092
  53        7.825456      8.588975
  54        7.880632      8.596332
  55        7.898227      8.722296
  56        8.073161      8.917693
  57        8.111865      8.927358
  58        8.154451      9.240270
  59        8.165845      9.248734
  60        8.621846      9.365936
  61        8.629549      9.379601
  62        9.246405     10.091746
  63        9.333318     10.892517
  64        9.353991     10.940747
  65        9.371623     10.943395
  66        9.382175     11.062609
  67        9.805301     11.108985
  68        9.962418     11.224469
  69       10.050942     11.467829
  70       10.275847     11.500803
  71       10.288536     11.721435
  72       10.385797     11.777256
  73       10.501827     11.797378
  74       10.615412     11.870550
  75       10.643081     12.107685
  76       10.865305     12.693712
  77       10.912899     12.701994
  78       13.306127     13.907303
  79       13.641718     13.954190
  80       13.684505     14.519339
  81       13.865849     14.561403
  82       14.782433     15.749983
  83       15.338895     15.951044
  84       15.826076     16.422533
  85       17.596606     17.778472
  86       17.671117     17.829952
  87       18.337400     18.786842
  88       18.390034     18.841220
  89       18.623759     19.254170
  90       19.129176     19.792041
  91       19.159910     19.810020
  92       19.653892     20.120479
  93       19.665370     20.128132
  94       20.186245     20.718769
  95       20.539094     21.064008
  96       20.987462     21.493925
  97       21.168695     21.671945
  98       21.453583     21.976801
  99       22.178820     22.432503
 100       23.262983     23.457747
 101       24.250443     24.697537
 102       24.460230     24.874338
 103       25.166860     25.611694
 104       25.922334     26.090806
 105       26.090442     26.251594
 106       26.696720     27.057647
 107       26.778359     27.133174
 108       29.107273     29.456704
 109       29.231340     29.575201
 110       30.144536     30.349681
 
  0.7142857E-01  0.0000000E+00  0.0000000E+00  0.2857143E-02
   1      -76.649335    -75.818215
   2      -76.630330    -75.798321
   3      -76.628701    -75.797355
   4      -62.183191    -59.933913
   5      -62.176021    -59.926046
   6      -62.175420    -59.925502
   7      -42.921022    -42.127340
   8      -42.798097    -41.996331
   9      -42.796733    -41.995608
  10      -42.691652    -41.890564
  11      -42.690911    -41.870120
  12      -42.689868    -41.869329
  13      -42.672472    -41.868626
  14      -42.670792    -41.867906
  15      -42.653188    -41.826234
  16      -33.597935    -31.435773
  17      -33.565266    -31.359612
  18      -33.556744    -31.358182
  19      -33.556139    -31.352299
  20      -33.536610    -31.343088
  21      -33.535527    -31.342579
  22      -33.483241    -31.245079
  23      -33.482907    -31.244975
  24      -33.469436    -31.222725
  25      -25.693194    -25.703135
  26      -25.693187    -25.703126
  27      -25.663163    -25.671416
  28      -25.663155    -25.671407
  29      -25.644591    -25.652361
  30      -25.592981    -25.614087
  31      -25.588683    -25.609274
  32      -25.587484    -25.605671
  33      -25.587453    -25.605628
  34      -25.584579    -25.601706
  35      -25.584550    -25.601662
  36      -25.571215    -25.587634
  37      -25.571143    -25.587563
  38      -25.567571    -25.583863
  39      -25.567513    -25.583805
  40       -3.471031     -3.459431
  41       -1.750614     -1.748648
  42       -1.221122     -1.264630
  43        3.917770      4.170327
  44        3.957294      4.208028
  45        4.670480      4.835161
  46        4.679826      4.852156
  47        5.542305      5.771391
  48        5.902348      6.646237
  49        6.658302      7.248951
  50        6.920602      7.334377
  51        6.962423      7.461219
  52        7.774058      7.942119
  53        7.824234      8.584426
  54        7.865547      8.594055
  55        7.892688      8.731121
  56        8.070749      8.912885
  57        8.119125      8.927280
  58        8.172425      9.245449
  59        8.188465      9.258317
  60        8.627442      9.371767
  61        8.637195      9.390253
  62        9.240317     10.086409
  63        9.332593     10.880483
  64        9.358528     10.936278
  65        9.369779     10.939905
  66        9.384657     11.057097
  67        9.810440     11.117881