    9    9    1    1
  0.1295486E+02  0.6067500E-09  0.6067500E-09  0.3657000E-09  0.5000000E-15
  1.000000000000000E-004
  CAR 
 EuTiO3                                  
  135  350  110
 
  0.0000000E+00  0.0000000E+00  0.0000000E+00  0.2857143E-02
   1      -76.386976
   2      -76.367021
   3      -76.366890
   4      -61.387185
   5      -61.379523
   6      -61.379298
   7      -42.720045
   8      -42.588332
   9      -42.588215
  10      -42.433734
  11      -42.433630
  12      -42.391766
  13      -42.389328
  14      -42.371285
  15      -42.371157
  16      -32.865976
  17      -32.794045
  18      -32.793851
  19      -32.722755
  20      -32.713496
  21      -32.713260
  22      -32.678809
  23      -32.678618
  24      -32.657413
  25      -25.678219
  26      -25.678218
  27      -25.656581
  28      -25.656576
  29      -25.641842
  30      -25.634753
  31      -25.630487
  32      -25.629338
  33      -25.629336
  34      -25.626091
  35      -25.626089
  36      -25.619545
  37      -25.619544
  38      -25.615902
  39      -25.615901
  40       -3.491402
  41       -1.736241
  42       -1.225765
  43        4.121864
  44        4.121986
  45        4.642108
  46        4.642226
  47        5.595481
  48        6.215972
  49        6.960551
  50        7.096103
  51        7.096128
  52        7.930035
  53        8.135143
  54        8.224225
  55        8.224278
  56        8.425336
  57        8.425403
  58        8.563895
  59        8.563899
  60        8.820709
  61        8.820758
  62        9.525268
  63        9.944334
  64        9.944456
  65       10.029467
  66       10.029645
  67       10.395544
  68       10.546615
  69       10.581371
  70       10.646392
  71       10.646490
  72       10.902469
  73       10.965498
  74       11.014223
  75       11.014314
  76       11.551865
  77       11.551911
  78       13.614631
  79       13.698411
  80       13.965462
  81       13.965484
  82       15.222989
  83       15.510734
  84       16.025506
  85       17.730993
  86       17.731028
  87       18.626585
  88       18.626697
  89       18.871520
  90       19.397789
  91       19.397830
  92       19.700030
  93       19.700166
  94       20.793494
  95       20.793547
  96       21.114769
  97       21.211727
  98       21.211838
  99       22.324814
 100       23.464314
 101       24.389690
 102       24.389746
 103       25.223376
 104       26.000603
 105       26.000628
 106       26.950469
 107       26.950548
 108       29.393789
 109       29.393876
 110       30.407616
 
  0.1020408E-01  0.0000000E+00  0.0000000E+00  0.2857143E-02
   1      -76.386974
   2      -76.367023
   3      -76.366891
   4      -61.387180
   5      -61.379526
   6      -61.379300
   7      -42.719984
   8      -42.588320
   9      -42.588191
  10      -42.433678
  11      -42.433590
  12      -42.391776
  13      -42.389332
  14      -42.371437
  15      -42.371283
  16      -32.865963
  17      -32.794024
  18      -32.793835
  19      -32.722752
  20      -32.713607
  21      -32.713360
  22      -32.678780
  23      -32.678570
  24      -32.657409
  25      -25.678219
  26      -25.678218
  27      -25.656581
  28      -25.656576
  29      -25.641844
  30      -25.634755
  31      -25.630488
  32      -25.629338
  33      -25.629336
  34      -25.626092
  35      -25.626089
  36      -25.619543
  37      -25.619543
  38      -25.615902
  39      -25.615901
  40       -3.490946
  41       -1.736489
  42       -1.226300
  43        4.119441
  44        4.120261
  45        4.644698
  46        4.644950
  47        5.595561
  48        6.216141
  49        6.960455
  50        7.095264
  51        7.096067
  52        7.928549
  53        8.135632
  54        8.223208
  55        8.223314
  56        8.425087
  57        8.425664
  58        8.565197
  59        8.565584
  60        8.821273
  61        8.821326
  62        9.524950
  63        9.944227
  64        9.944386
  65       10.029298
  66       10.029549
  67       10.395484
  68       10.546295
  69       10.581847
  70       10.646226
  71       10.646863
  72       10.901711
  73       10.965588
  74       11.014413
  75       11.015875
  76       11.551666
  77       11.551885
  78       13.611555
  79       13.698624
  80       13.964959
  81       13.969152
  82       15.221567
  83       15.510682
  84       16.025243
  85       17.728932
  86       17.730886
  87       18.623217
  88       18.624698
  89       18.869443
  90       19.397316
  91       19.397874
  92       19.704096
  93       19.704261
  94       20.766211
  95       20.790494
  96       21.136332
  97       21.215054
  98       21.221940
  99       22.322765
 100       23.460577
 101       24.390020
 102       24.396018
 103       25.226548
 104       25.999939
 105       26.004819
 106       26.946952
 107       26.949380
 108       29.389680
 109       29.393950
 110       30.394139
 
  0.2040816E-01  0.0000000E+00  0.0000000E+00  0.2857143E-02
   1      -76.386973
   2      -76.367024
   3      -76.366891
   4      -61.387174
   5      -61.379531
   6      -61.379302
   7      -42.719982
   8      -42.588324
   9      -42.588205
  10      -42.433679
  11      -42.433592
  12      -42.391780
  13      -42.389343
  14      -42.371497
  15      -42.371291
  16      -32.865920
  17      -32.794060
  18      -32.793839
  19      -32.722747
  20      -32.713650
  21      -32.713374
  22      -32.678776
  23      -32.678583
  24      -32.657426
  25      -25.678219
  26      -25.678218
  27      -25.656582
  28      -25.656577
  29      -25.641844
  30      -25.634753
  31      -25.630491
  32      -25.629338
  33      -25.629336
  34      -25.626094
  35      -25.626089
  36      -25.619546
  37      -25.619541
  38      -25.615903
  39      -25.615899
  40       -3.489599
  41       -1.737246
  42       -1.227904
  43        4.112151
  44        4.115561
  45        4.652288
  46        4.653077
  47        5.595821
  48        6.216670
  49        6.959990
  50        7.092634
  51        7.095931
  52        7.924148
  53        8.136928
  54        8.220195
  55        8.220707
  56        8.424327
  57        8.426506
  58        8.569037
  59        8.570518
  60        8.822842
  61        8.823141
  62        9.523974
  63        9.943889
  64        9.944192
  65       10.028511
  66       10.029582
  67       10.395285
  68       10.545333
  69       10.583211
  70       10.645627
  71       10.647936
  72       10.899609
  73       10.965863
  74       11.014914
  75       11.020477
  76       11.551108
  77       11.552047
  78       13.602646
  79       13.699265
  80       13.963399
  81       13.979712
  82       15.217325
  83       15.510532
  84       16.024453
  85       17.722709
  86       17.730472
  87       18.613140
  88       18.619193
  89       18.863215
  90       19.395915
  91       19.398259
  92       19.716046
  93       19.716512
  94       20.702208
  95       20.781908
  96       21.168956
  97       21.227444
  98       21.263461
  99       22.316808
 100       23.449462
 101       24.390906
 102       24.414786
 103       25.235995
 104       25.997925
 105       26.017321
 106       26.936332
 107       26.946069
 108       29.377484
 109       29.391927
 110       30.372146
 
  0.3061224E-01  0.0000000E+00  0.0000000E+00  0.2857143E-02
   1      -76.386972
   2      -76.367022
   3      -76.366889
   4      -61.387163
   5      -61.379537
   6      -61.379303
   7      -42.719917
   8      -42.588295
   9      -42.588189
  10      -42.433654
  11      -42.433556
  12      -42.391771
  13      -42.389328
  14      -42.371484
  15      -42.371276
  16      -32.865803
  17      -32.794101
  18      -32.793813
  19      -32.722734
  20      -32.713651
  21      -32.713362
  22      -32.678757
  23      -32.678573
  24      -32.657426
  25      -25.678218
  26      -25.678217
  27      -25.656582
  28      -25.656576
  29      -25.641842
  30      -25.634750
  31      -25.630497
  32      -25.629337
  33      -25.629332
  34      -25.626096
  35      -25.626090
  36      -25.619549
  37      -25.619538
  38      -25.615903
  39      -25.615895
  40       -3.487351
  41       -1.738502
  42       -1.230567
  43        4.100483
  44        4.108132
  45        4.664446
  46        4.666250
  47        5.596268
  48        6.217557
  49        6.958966
  50        7.088466
  51        7.095782
  52        7.916920
  53        8.138934
  54        8.215398
  55        8.216745
  56        8.423060
  57        8.427899
  58        8.575222
  59        8.578519
  60        8.825356
  61        8.826274
  62        9.522379
  63        9.943312
  64        9.943902
  65       10.027184
  66       10.029670
  67       10.395027
  68       10.543735
  69       10.585447
  70       10.644677
  71       10.649756
  72       10.896482
  73       10.966351
  74       11.015742
  75       11.027819
  76       11.550178
  77       11.552361
  78       13.588813
  79       13.700334
  80       13.960824
  81       13.996296
  82       15.210296
  83       15.510282
  84       16.023134
  85       17.712456
  86       17.729782
  87       18.596860
  88       18.610384
  89       18.852901
  90       19.393363
  91       19.398863
  92       19.735333
  93       19.736708
  94       20.623907
  95       20.769138
  96       21.182337
  97       21.250613
  98       21.341377
  99       22.307512
 100       23.431248
 101       24.392411
 102       24.445416
 103       25.251649
 104       25.994561
 105       26.037861
 106       26.918984
 107       26.940601
 108       29.357111
 109       29.389766
 110       30.412087
 
  0.4081633E-01  0.0000000E+00  0.0000000E+00  0.2857143E-02
   1      -76.386966
   2      -76.367022
   3      -76.366890
   4      -61.387149
   5      -61.379545
   6      -61.379305
   7      -42.719912
   8      -42.588257
   9      -42.588136
  10      -42.433590
  11      -42.433449
  12      -42.391729
  13      -42.389293
  14      -42.371501
  15      -42.371369
  16      -32.865624
  17      -32.794181
  18      -32.793757
  19      -32.722713
  20      -32.713667
  21      -32.713417
  22      -32.678717
  23      -32.678547
  24      -32.657433
  25      -25.678217
  26      -25.678214
  27      -25.656582
  28      -25.656576
  29      -25.641841
  30      -25.634746
  31      -25.630505
  32      -25.629337
  33      -25.629327
  34      -25.626100
  35      -25.626090
  36      -25.619554
  37      -25.619533
  38      -25.615906
  39      -25.615887
  40       -3.484204
  41       -1.740265
  42       -1.234294
  43        4.085028
  44        4.098447
  45        4.680561
  46        4.683969
  47        5.596875
  48        6.218809
  49        6.956992
  50        7.083067
  51        7.095739
  52        7.907009
  53        8.141365
  54        8.209097
  55        8.211974
  56        8.421264
  57        8.429839
  58        8.583464
  59        8.589246
  60        8.828659
  61        8.830683
  62        9.520140
  63        9.942515
  64        9.943614
  65       10.025341
  66       10.029797
  67       10.394641
  68       10.541512
  69       10.588489
  70       10.643361
  71       10.652311
  72       10.892643
  73       10.967040
  74       11.016889
  75       11.037519
  76       11.548890
  77       11.552849
  78       13.571130
  79       13.701801
  80       13.957206
  81       14.017793
  82       15.200496
  83       15.509925
  84       16.021281
  85       17.698305
  86       17.728811
  87       18.575004
  88       18.598728
  89       18.838576
  90       19.389299
  91       19.399598
  92       19.761212
  93       19.764347
  94       20.541514
  95       20.753766
  96       21.186631
  97       21.281770
  98       21.436523
  99       22.295734
 100       23.406363
 101       24.394498
 102       24.486980
 103       25.273372
 104       25.989834
 105       26.066013
 106       26.895420
 107       26.933049
 108       29.329209
 109       29.386924
 110       30.374827
 
  0.5102041E-01  0.0000000E+00  0.0000000E+00  0.2857143E-02
   1      -76.386967
   2      -76.367023
   3      -76.366891
   4      -61.387134
   5      -61.379558
   6      -61.379309
   7      -42.719879
   8      -42.588332
   9      -42.588142
  10      -42.433588
  11      -42.433486
  12      -42.391718
  13      -42.389347
  14      -42.371493
  15      -42.371354
  16      -32.865456
  17      -32.794376
  18      -32.793720
  19      -32.722692
  20      -32.713668
  21      -32.713415
  22      -32.678742
  23      -32.678561
  24      -32.657504
  25      -25.678217
  26      -25.678213
  27      -25.656581
  28      -25.656576
  29      -25.641839
  30      -25.634741
  31      -25.630516
  32      -25.629336
  33      -25.629320
  34      -25.626106
  35      -25.626090
  36      -25.619561
  37      -25.619530
  38      -25.615910
  39      -25.615879
  40       -3.480169
  41       -1.742529
  42       -1.239068
  43        4.066425
  44        4.087043
  45        4.699939
  46        4.705660
  47        5.597668
  48        6.220401
  49        6.953477
  50        7.076880
  51        7.095967
  52        7.894600
  53        8.143693
  54        8.201626
  55        8.207148
  56        8.418916
  57        8.432192
  58        8.593398
  59        8.602338
  60        8.832607
  61        8.836460
  62        9.517294
  63        9.941408
  64        9.943178
  65       10.022985
  66       10.029923
  67       10.394243
  68       10.538582
  69       10.592180
  70       10.641699
  71       10.655637
  72       10.888453
  73       10.967874
  74       11.018334
  75       11.049253
  76       11.547226
  77       11.553425
  78       13.550601
  79       13.703662
  80       13.952521
  81       14.043205
  82       15.187958
  83       15.509443
  84       16.018863
  85       17.680434
  86       17.727559
  87       18.548343
  88       18.584838
  89       18.820359
  90       19.383231
  91       19.400341
  92       19.792915
  93       19.798859
  94       20.459382
  95       20.737208
  96       21.188332
  97       21.318415
  98       21.539281
  99       22.282594
 100       23.375372
 101       24.397173
 102       24.538352
 103       25.300945
 104       25.983732
 105       26.101220
 106       26.866331
 107       26.923518
 108       29.294436
 109       29.382869
 110       30.251294
 
  0.6122449E-01  0.0000000E+00  0.0000000E+00  0.2857143E-02
   1      -76.386968
   2      -76.367026
   3      -76.366892
   4      -61.387116
   5      -61.379575
   6      -61.379315
   7      -42.719911
   8      -42.588370
   9      -42.588225
  10      -42.433632
  11      -42.433540
  12      -42.391723
  13      -42.389407
  14      -42.371502
  15      -42.371362
  16      -32.865288
  17      -32.794602
  18      -32.793713
  19      -32.722675
  20      -32.713690
  21      -32.713425
  22      -32.678804
  23      -32.678560
  24      -32.657613
  25      -25.678218
  26      -25.678212
  27      -25.656581
  28      -25.656576
  29      -25.641836
  30      -25.634734
  31      -25.630530
  32      -25.629335
  33      -25.629312
  34      -25.626115
  35      -25.626091
  36      -25.619570
  37      -25.619524
  38      -25.615916
  39      -25.615872
  40       -3.475242
  41       -1.745302
  42       -1.244883
  43        4.045306
  44        4.074494
  45        4.721936
  46        4.730739
  47        5.598617
  48        6.222337
  49        6.947777
  50        7.070410
  51        7.096725
  52        7.879901
  53        8.145089
  54        8.193366
  55        8.203453
  56        8.416016
  57        8.434948
  58        8.604742
  59        8.617377
  60        8.837043
  61        8.843520
  62        9.513854
  63        9.940039
  64        9.942709
  65       10.020120
  66       10.030035
  67       10.393811
  68       10.534988
  69       10.596390
  70       10.639755
  71       10.659779
  72       10.884118
  73       10.968886
  74       11.020035
  75       11.062754
  76       11.545166
  77       11.554185
  78       13.528028
  79       13.705879
  80       13.946836
  81       14.071683
  82       15.172729
  83       15.508822
  84       16.015875
  85       17.659125
  86       17.726007
  87       18.517657
  88       18.569293
  89       18.798395
  90       19.374497
  91       19.401029
  92       19.829583
  93       19.839557
  94       20.379860
  95       20.720554
  96       21.189246
  97       21.358770
  98       21.646337
  99       22.269368
 100       23.338920
 101       24.400385
 102       24.598209
 103       25.334079
 104       25.976228
 105       26.142856
 106       26.832587
 107       26.912198
 108       29.253059
 109       29.376414
 110       30.184686
 
  0.7142857E-01  0.0000000E+00  0.0000000E+00  0.2857143E-02
   1      -76.386966
   2      -76.367020
   3      -76.366890
   4      -61.387089
   5      -61.379593
   6      -61.379316
   7      -42.719815
   8      -42.588313
   9      -42.588124
  10      -42.433600
  11      -42.433496
  12      -42.391705
  13      -42.389300
  14      -42.371463
  15      -42.371315
  16      -32.865031
  17      -32.794711
  18      -32.793651
  19      -32.722604
  20      -32.713702
  21      -32.713413
  22      -32.678784
  23      -32.678475
  24      -32.657626
  25      -25.678217
  26      -25.678209
  27      -25.656580
  28      -25.656575
  29      -25.641833
  30      -25.634725
  31      -25.630544
  32      -25.629334
  33      -25.629302
  34      -25.626123
  35      -25.626091
  36      -25.619579
  37      -25.619516
  38      -25.615920
  39      -25.615858
  40       -3.469401
  41       -1.748569
  42       -1.251707
  43        4.022282
  44        4.061299
  45        4.745966
  46        4.758720
  47        5.599752
  48        6.224632
  49        6.939221
  50        7.064142
  51        7.098363
  52        7.863143
  53        8.144613
  54        8.184623
  55        8.202148
  56        8.412576
  57        8.438092
  58        8.617164
  59        8.634227
  60        8.841874
  61        8.851872
  62        9.509906
  63        9.938435
  64        9.942256
  65       10.016791
  66       10.030194
  67       10.393441
  68       10.530799
  69       10.600898
  70       10.637765
  71       10.664911
  72       10.879910
  73       10.970127
  74       11.022017
  75       11.077894
  76       11.542767
  77       11.555195
  78       13.504060
  79       13.708448
  80       13.940161
  81       14.102622
  82       15.154901
  83       15.508060
  84       16.012323
  85       17.634681
  86       17.724168
  87       18.483703
  88       18.552697
  89       18.772881
  90       19.362286
  91       19.401635
  92       19.870430
  93       19.885802
  94       20.304639
  95       20.704593
  96       21.190075
  97       21.401395
  98       21.756248
  99       22.257527
 100       23.297715
 101       24.404088
 102       24.665203
 103       25.372378
 104       25.967306
 105       26.190249
 106       26.795241
 107       26.899358
 108       29.205665
 109       29.370093
 110       30.142366
 
  0.8163265E-01  0.0000000E+00  0.0000000E+00  0.2857143E-02
   1      -76.386967
   2      -76.367021
   3      -76.366891
   4      -61.387061
   5      -61.379619
   6      -61.379320
   7      -42.719839
   8      -42.588298
   9      -42.588175
  10      -42.433643
  11      -42.433545
  12      -42.391697
  13      -42.389292
  14      -42.371435
  15      -42.371325
  16      -32.864821
  17      -32.794955
  18      -32.793609
  19      -32.722538
  20      -32.713744
  21      -32.713420
  22      -32.678847
  23      -32.678434
  24      -32.657720
  25      -25.678216
  26      -25.678207
  27      -25.656580
  28      -25.656575
  29      -25.641829
  30      -25.634715
  31      -25.630561
  32      -25.629332
  33      -25.629292
  34      -25.626133
  35      -25.626092
  36      -25.619591
  37      -25.619508
  38      -25.615925
  39      -25.615845
  40       -3.462683
  41       -1.752346
  42       -1.259545
  43        3.997772
  44        4.047883
  45        4.771501
  46        4.789084
  47        5.601031
  48        6.227266
  49        6.927268
  50        7.058306
  51        7.101165
  52        7.844542
  53        8.141502
  54        8.175655
  55        8.204096
  56        8.408603
  57        8.441558
  58        8.630339
  59        8.652401
  60        8.846957
  61        8.861311
  62        9.505393
  63        9.936540
  64        9.941801
  65       10.013012
  66       10.030266
  67       10.393117
  68       10.525962
  69       10.605244
  70       10.635845
  71       10.670937
  72       10.875898
  73       10.971502
  74       11.024203
  75       11.094471
  76       11.539951
  77       11.556405
  78       13.479077
  79       13.711302
  80       13.932455
  81       14.135501
  82       15.134509
  83       15.507106
  84       16.008161
  85       17.607347
  86       17.721999
  87       18.447132
  88       18.535578
  89       18.743963
  90       19.345657
  91       19.402099
  92       19.914695
  93       19.936957
  94       20.234912
  95       20.689779
  96       21.191182
  97       21.444910
  98       21.868136
  99       22.248542
 100       23.252478
 101       24.408147
 102       24.737919
 103       25.415241
 104       25.956931
 105       26.242699
 106       26.755427
 107       26.885383
 108       29.154276
 109       29.363862
 110       30.105844
 
  0.9183673E-01  0.0000000E+00  0.0000000E+00  0.2857143E-02
   1      -76.386968
   2      -76.367023
   3      -76.366892
   4      -61.387033
   5      -61.379646
   6      -61.379325
   7      -42.719851
   8      -42.588347
   9      -42.588202
  10      -42.433690
  11      -42.433600
  12      -42.391700
  13      -42.389311
  14      -42.371442
  15      -42.371332
  16      -32.864554
  17      -32.795250
  18      -32.793567
  19      -32.722509
  20      -32.713778
  21      -32.713428
  22      -32.678929
  23      -32.678409
  24      -32.657832
  25      -25.678215
  26      -25.678205
  27      -25.656580
  28      -25.656575
  29      -25.641825
  30      -25.634704
  31      -25.630581
  32      -25.629331
  33      -25.629279
  34      -25.626146
  35      -25.626094
  36      -25.619603
  37      -25.619498
  38      -25.615931
  39      -25.615834
  40       -3.455091
  41       -1.756633
  42       -1.268355
  43        3.972189
  44        4.034620
  45        4.798105
  46        4.821459
  47        5.602471
  48        6.230248
  49        6.911787
  50        7.052914
  51        7.105447
  52        7.824316
  53        8.136055
  54        8.166716
  55        8.209231
  56        8.404123
  57        8.445328
  58        8.644005
  59        8.671683
  60        8.852123
  61        8.871818
  62        9.500421
  63        9.934376
  64        9.941384
  65       10.008795
  66       10.030244
  67       10.392857
  68       10.520472
  69       10.608827
  70       10.634550
  71       10.677924
  72       10.872202
  73       10.973082
  74       11.026563
  75       11.112371
  76       11.536765
  77       11.557916
  78       13.453430
  79       13.714422
  80       13.923743
  81       14.170010
  82       15.111677
  83       15.505947
  84       16.003357
  85       17.577480
  86       17.719496
  87       18.408551
  88       18.518427
  89       18.711868
  90       19.323695
  91       19.402451
  92       19.961720
  93       19.992449
  94       20.171815
  95       20.676454
  96       21.192861
  97       21.488012
  98       21.981435
  99       22.244073
 100       23.203942
 101       24.412415
 102       24.815045
 103       25.461842
 104       25.945074
 105       26.299509
 106       26.714462
 107       26.870859
 108       29.095769
 109       29.353159
 110       30.153324
 
  0.1020408E+00  0.0000000E+00  0.0000000E+00  0.2857143E-02
   1      -76.386970
   2      -76.367022
   3      -76.366893
   4      -61.387002
   5      -61.379676
   6      -61.379328
   7      -42.719879
   8      -42.588380
   9      -42.588201
  10      -42.433777
  11      -42.433685
  12      -42.391690
  13      -42.389276
  14      -42.371442
  15      -42.371274
  16      -32.864267
  17      -32.795533
  18      -32.793534
  19      -32.722466
  20      -32.713800
  21      -32.713399
  22      -32.679040
  23      -32.678400
  24      -32.657917
  25      -25.678213
  26      -25.678203
  27      -25.656580
  28      -25.656574
  29      -25.641820
  30      -25.634691
  31      -25.630602
  32      -25.629330
  33      -25.629263
  34      -25.626161
  35      -25.626095
  36      -25.619618
  37      -25.619487
  38      -25.615939
  39      -25.615819
  40       -3.446622
  41       -1.761430
  42       -1.278123
  43        3.945848
  44        4.021836
  45        4.825412
  46        4.855478
  47        5.604079
  48        6.233576
  49        6.892892
  50        7.047775
  51        7.111376
  52        7.802677
  53        8.129072
  54        8.158036
  55        8.216893
  56        8.399190
  57        8.449390
  58        8.657997
  59        8.691835
  60        8.857268
  61        8.883325
  62        9.494995
  63        9.931960
  64        9.941023
  65       10.004198
  66       10.030117
  67       10.392758
  68       10.514388
  69       10.610602
  70       10.634722
  71       10.686012
  72       10.868938
  73       10.974875
  74       11.029100
  75       11.131560
  76       11.533201
  77       11.559749
  78       13.427315
  79       13.717768
  80       13.914021
  81       14.205870
  82       15.086492
  83       15.504531
  84       15.997911
  85       17.545359
  86       17.716631
  87       18.368454
  88       18.501645
  89       18.676834
  90       19.295627
  91       19.402736
  92       20.010929
  93       20.051795
  94       20.116195
  95       20.664788
  96       21.195359
  97       21.529386
  98       22.095386
  99       22.246071
 100       23.152827
 101       24.416700
 102       24.895361
 103       25.511017
 104       25.931703
 105       26.360026
 106       26.673751
 107       26.856650
 108       29.033878
 109       29.342867
 110       29.974734
 
  0.1122449E+00  0.0000000E+00  0.0000000E+00  0.2857143E-02
   1      -76.386973
   2      -76.367025
   3      -76.366896
   4      -61.386967
   5      -61.379713
   6      -61.379334
   7      -42.719896
   8      -42.588407
   9      -42.588237
  10      -42.433874
  11      -42.433736
  12      -42.391753
  13      -42.389275
  14      -42.371569
  15      -42.371296
  16      -32.863961
  17      -32.795868
  18      -32.793497
  19      -32.722433
  20      -32.713930
  21      -32.713454
  22      -32.679139
  23      -32.678345
  24      -32.658056
  25      -25.678212
  26      -25.678199
  27      -25.656581
  28      -25.656576
  29      -25.641815
  30      -25.634676
  31      -25.630626
  32      -25.629329
  33      -25.629247
  34      -25.626181
  35      -25.626098
  36      -25.619632
  37      -25.619475
  38      -25.615947
  39      -25.615803
  40       -3.437271
  41       -1.766744
  42       -1.288811
  43        3.918990
  44        4.009749
  45        4.853109
  46        4.890861
  47        5.605817
  48        6.237238
  49        6.870933
  50        7.042640
  51        7.119037
  52        7.779796
  53        8.121246
  54        8.149739
  55        8.226482
  56        8.393793
  57        8.453673
  58        8.672108
  59        8.712628
  60        8.862272
  61        8.895606
  62        9.489157
  63        9.929290
  64        9.940772
  65        9.999191
  66       10.029746
  67       10.392820
  68       10.507728
  69       10.609890
  70       10.636923
  71       10.695248
  72       10.866094
  73       10.976878
  74       11.031782
  75       11.151901
  76       11.529278
  77       11.561941
  78       13.400910
  79       13.721259
  80       13.903334
  81       14.242922
  82       15.059046
  83       15.502805
  84       15.991795
  85       17.511354
  86       17.713399
  87       18.327253
  88       18.485573
  89       18.639087
  90       19.260967
  91       19.402981
  92       20.061723
  93       20.068464
  94       20.114470
  95       20.654910
  96       21.198910
  97       21.567741
  98       22.206115
  99       22.259537
 100       23.099831
 101       24.420727
 102       24.977740
 103       25.561155
 104       25.916780
 105       26.423604
 106       26.634719
 107       26.844046
 108       28.968876
 109       29.340133
 110       29.943841
 
  0.1224490E+00  0.0000000E+00  0.0000000E+00  0.2857143E-02
   1      -76.386973
   2      -76.367027
   3      -76.366898
   4      -61.386927
   5      -61.379753
   6      -61.379338
   7      -42.719887
   8      -42.588414
   9      -42.588264
  10      -42.433900
  11      -42.433766
  12      -42.391751
  13      -42.389274
  14      -42.371587
  15      -42.371427
  16      -32.863620
  17      -32.796193
  18      -32.793442
  19      -32.722393
  20      -32.714017
  21      -32.713512
  22      -32.679226
  23      -32.678284
  24      -32.658170
  25      -25.678211
  26      -25.678195
  27      -25.656582
  28      -25.656577
  29      -25.641810
  30      -25.634660
  31      -25.630653
  32      -25.629327
  33      -25.629230
  34      -25.626200
  35      -25.626101
  36      -25.619645
  37      -25.619461
  38      -25.615956
  39      -25.615787
  40       -3.427048
  41       -1.772579
  42       -1.300382
  43        3.891845
  44        3.998614
  45        4.880912
  46        4.927333
  47        5.607704
  48        6.241249
  49        6.846315
  50        7.037330
  51        7.128338
  52        7.755879
  53        8.113156
  54        8.141970
  55        8.237507
  56        8.387982
  57        8.458231
  58        8.686209
  59        8.733899
  60        8.867134